+ 1 1 0 tcp 40 ------- 0 1.0 2.0 0 0
- 1 1 0 tcp 40 ------- 0 1.0 2.0 0 0
r 1.010003 1 0 tcp 40 ------- 0 1.0 2.0 0 0
+ 1.010003 0 2 tcp 40 ------- 0 1.0 2.0 0 0
- 1.010003 0 2 tcp 40 ------- 0 1.0 2.0 0 0
r 1.020006 0 2 tcp 40 ------- 0 1.0 2.0 0 0
+ 1.020006 2 0 ack 40 ------- 0 2.0 1.0 0 1
- 1.020006 2 0 ack 40 ------- 0 2.0 1.0 0 1
r 1.03001 2 0 ack 40 ------- 0 2.0 1.0 0 1
+ 1.03001 0 1 ack 40 ------- 0 2.0 1.0 0 1
- 1.03001 0 1 ack 40 ------- 0 2.0 1.0 0 1
r 1.040013 0 1 ack 40 ------- 0 2.0 1.0 0 1
+ 1.040013 1 0 tcp 1540 ------- 0 1.0 2.0 1 2
- 1.040013 1 0 tcp 1540 ------- 0 1.0 2.0 1 2
+ 1.040013 1 0 tcp 1540 ------- 0 1.0 2.0 2 3
- 1.040136 1 0 tcp 1540 ------- 0 1.0 2.0 2 3
r 1.050136 1 0 tcp 1540 ------- 0 1.0 2.0 1 2
+ 1.050136 0 2 tcp 1540 ------- 0 1.0 2.0 1 2
- 1.050136 0 2 tcp 1540 ------- 0 1.0 2.0 1 2
r 1.050259 1 0 tcp 1540 ------- 0 1.0 2.0 2 3
+ 1.050259 0 2 tcp 1540 ------- 0 1.0 2.0 2 3
- 1.050259 0 2 tcp 1540 ------- 0 1.0 2.0 2 3
r 1.060259 0 2 tcp 1540 ------- 0 1.0 2.0 1 2
+ 1.060259 2 0 ack 40 ------- 0 2.0 1.0 1 4
- 1.060259 2 0 ack 40 ------- 0 2.0 1.0 1 4
r 1.060382 0 2 tcp 1540 ------- 0 1.0 2.0 2 3
+ 1.060382 2 0 ack 40 ------- 0 2.0 1.0 2 5
- 1.060382 2 0 ack 40 ------- 0 2.0 1.0 2 5
r 1.070262 2 0 ack 40 ------- 0 2.0 1.0 1 4
+ 1.070262 0 1 ack 40 ------- 0 2.0 1.0 1 4
- 1.070262 0 1 ack 40 ------- 0 2.0 1.0 1 4
r 1.070386 2 0 ack 40 ------- 0 2.0 1.0 2 5
+ 1.070386 0 1 ack 40 ------- 0 2.0 1.0 2 5
- 1.070386 0 1 ack 40 ------- 0 2.0 1.0 2 5
r 1.080266 0 1 ack 40 ------- 0 2.0 1.0 1 4
+ 1.080266 1 0 tcp 1540 ------- 0 1.0 2.0 3 6
- 1.080266 1 0 tcp 1540 ------- 0 1.0 2.0 3 6
+ 1.080266 1 0 tcp 1540 ------- 0 1.0 2.0 4 7
r 1.080389 0 1 ack 40 ------- 0 2.0 1.0 2 5
+ 1.080389 1 0 tcp 1540 ------- 0 1.0 2.0 5 8
+ 1.080389 1 0 tcp 1540 ------- 0 1.0 2.0 6 9
- 1.080389 1 0 tcp 1540 ------- 0 1.0 2.0 4 7
- 1.080512 1 0 tcp 1540 ------- 0 1.0 2.0 5 8
- 1.080635 1 0 tcp 1540 ------- 0 1.0 2.0 6 9
r 1.090389 1 0 tcp 1540 ------- 0 1.0 2.0 3 6
+ 1.090389 0 2 tcp 1540 ------- 0 1.0 2.0 3 6
- 1.090389 0 2 tcp 1540 ------- 0 1.0 2.0 3 6
r 1.090512 1 0 tcp 1540 ------- 0 1.0 2.0 4 7
+ 1.090512 0 2 tcp 1540 ------- 0 1.0 2.0 4 7
- 1.090512 0 2 tcp 1540 ------- 0 1.0 2.0 4 7
r 1.090635 1 0 tcp 1540 ------- 0 1.0 2.0 5 8
+ 1.090635 0 2 tcp 1540 ------- 0 1.0 2.0 5 8
- 1.090635 0 2 tcp 1540 ------- 0 1.0 2.0 5 8
r 1.090758 1 0 tcp 1540 ------- 0 1.0 2.0 6 9
+ 1.090758 0 2 tcp 1540 ------- 0 1.0 2.0 6 9
- 1.090758 0 2 tcp 1540 ------- 0 1.0 2.0 6 9
r 1.100512 0 2 tcp 1540 ------- 0 1.0 2.0 3 6
+ 1.100512 2 0 ack 40 ------- 0 2.0 1.0 3 10
- 1.100512 2 0 ack 40 ------- 0 2.0 1.0 3 10
r 1.100635 0 2 tcp 1540 ------- 0 1.0 2.0 4 7
+ 1.100635 2 0 ack 40 ------- 0 2.0 1.0 4 11
- 1.100635 2 0 ack 40 ------- 0 2.0 1.0 4 11
r 1.100758 0 2 tcp 1540 ------- 0 1.0 2.0 5 8
+ 1.100758 2 0 ack 40 ------- 0 2.0 1.0 5 12
- 1.100758 2 0 ack 40 ------- 0 2.0 1.0 5 12
r 1.100882 0 2 tcp 1540 ------- 0 1.0 2.0 6 9
+ 1.100882 2 0 ack 40 ------- 0 2.0 1.0 6 13
- 1.100882 2 0 ack 40 ------- 0 2.0 1.0 6 13
r 1.110515 2 0 ack 40 ------- 0 2.0 1.0 3 10
+ 1.110515 0 1 ack 40 ------- 0 2.0 1.0 3 10
- 1.110515 0 1 ack 40 ------- 0 2.0 1.0 3 10
r 1.110638 2 0 ack 40 ------- 0 2.0 1.0 4 11
+ 1.110638 0 1 ack 40 ------- 0 2.0 1.0 4 11
- 1.110638 0 1 ack 40 ------- 0 2.0 1.0 4 11
r 1.110762 2 0 ack 40 ------- 0 2.0 1.0 5 12
+ 1.110762 0 1 ack 40 ------- 0 2.0 1.0 5 12
- 1.110762 0 1 ack 40 ------- 0 2.0 1.0 5 12
r 1.110885 2 0 ack 40 ------- 0 2.0 1.0 6 13
+ 1.110885 0 1 ack 40 ------- 0 2.0 1.0 6 13
- 1.110885 0 1 ack 40 ------- 0 2.0 1.0 6 13
r 1.120518 0 1 ack 40 ------- 0 2.0 1.0 3 10
+ 1.120518 1 0 tcp 1540 ------- 0 1.0 2.0 7 14
- 1.120518 1 0 tcp 1540 ------- 0 1.0 2.0 7 14
+ 1.120518 1 0 tcp 1540 ------- 0 1.0 2.0 8 15
r 1.120642 0 1 ack 40 ------- 0 2.0 1.0 4 11
+ 1.120642 1 0 tcp 1540 ------- 0 1.0 2.0 9 16
+ 1.120642 1 0 tcp 1540 ------- 0 1.0 2.0 10 17
- 1.120642 1 0 tcp 1540 ------- 0 1.0 2.0 8 15
r 1.120765 0 1 ack 40 ------- 0 2.0 1.0 5 12
+ 1.120765 1 0 tcp 1540 ------- 0 1.0 2.0 11 18
+ 1.120765 1 0 tcp 1540 ------- 0 1.0 2.0 12 19
- 1.120765 1 0 tcp 1540 ------- 0 1.0 2.0 9 16
r 1.120888 0 1 ack 40 ------- 0 2.0 1.0 6 13
+ 1.120888 1 0 tcp 1540 ------- 0 1.0 2.0 13 20
+ 1.120888 1 0 tcp 1540 ------- 0 1.0 2.0 14 21
- 1.120888 1 0 tcp 1540 ------- 0 1.0 2.0 10 17
- 1.121011 1 0 tcp 1540 ------- 0 1.0 2.0 11 18
- 1.121134 1 0 tcp 1540 ------- 0 1.0 2.0 12 19
- 1.121258 1 0 tcp 1540 ------- 0 1.0 2.0 13 20
- 1.121381 1 0 tcp 1540 ------- 0 1.0 2.0 14 21
r 1.130642 1 0 tcp 1540 ------- 0 1.0 2.0 7 14
+ 1.130642 0 2 tcp 1540 ------- 0 1.0 2.0 7 14
- 1.130642 0 2 tcp 1540 ------- 0 1.0 2.0 7 14
r 1.130765 1 0 tcp 1540 ------- 0 1.0 2.0 8 15
+ 1.130765 0 2 tcp 1540 ------- 0 1.0 2.0 8 15
- 1.130765 0 2 tcp 1540 ------- 0 1.0 2.0 8 15
r 1.130888 1 0 tcp 1540 ------- 0 1.0 2.0 9 16
+ 1.130888 0 2 tcp 1540 ------- 0 1.0 2.0 9 16
- 1.130888 0 2 tcp 1540 ------- 0 1.0 2.0 9 16
r 1.131011 1 0 tcp 1540 ------- 0 1.0 2.0 10 17
+ 1.131011 0 2 tcp 1540 ------- 0 1.0 2.0 10 17
- 1.131011 0 2 tcp 1540 ------- 0 1.0 2.0 10 17
r 1.131134 1 0 tcp 1540 ------- 0 1.0 2.0 11 18
+ 1.131134 0 2 tcp 1540 ------- 0 1.0 2.0 11 18
- 1.131134 0 2 tcp 1540 ------- 0 1.0 2.0 11 18
r 1.131258 1 0 tcp 1540 ------- 0 1.0 2.0 12 19
+ 1.131258 0 2 tcp 1540 ------- 0 1.0 2.0 12 19
- 1.131258 0 2 tcp 1540 ------- 0 1.0 2.0 12 19
r 1.131381 1 0 tcp 1540 ------- 0 1.0 2.0 13 20
+ 1.131381 0 2 tcp 1540 ------- 0 1.0 2.0 13 20
- 1.131381 0 2 tcp 1540 ------- 0 1.0 2.0 13 20
r 1.131504 1 0 tcp 1540 ------- 0 1.0 2.0 14 21
+ 1.131504 0 2 tcp 1540 ------- 0 1.0 2.0 14 21
- 1.131504 0 2 tcp 1540 ------- 0 1.0 2.0 14 21
r 1.140765 0 2 tcp 1540 ------- 0 1.0 2.0 7 14
+ 1.140765 2 0 ack 40 ------- 0 2.0 1.0 7 22
- 1.140765 2 0 ack 40 ------- 0 2.0 1.0 7 22
r 1.140888 0 2 tcp 1540 ------- 0 1.0 2.0 8 15
+ 1.140888 2 0 ack 40 ------- 0 2.0 1.0 8 23
- 1.140888 2 0 ack 40 ------- 0 2.0 1.0 8 23
r 1.141011 0 2 tcp 1540 ------- 0 1.0 2.0 9 16
+ 1.141011 2 0 ack 40 ------- 0 2.0 1.0 9 24
- 1.141011 2 0 ack 40 ------- 0 2.0 1.0 9 24
r 1.141134 0 2 tcp 1540 ------- 0 1.0 2.0 10 17
+ 1.141134 2 0 ack 40 ------- 0 2.0 1.0 10 25
- 1.141134 2 0 ack 40 ------- 0 2.0 1.0 10 25
r 1.141258 0 2 tcp 1540 ------- 0 1.0 2.0 11 18
+ 1.141258 2 0 ack 40 ------- 0 2.0 1.0 11 26
- 1.141258 2 0 ack 40 ------- 0 2.0 1.0 11 26
r 1.141381 0 2 tcp 1540 ------- 0 1.0 2.0 12 19
+ 1.141381 2 0 ack 40 ------- 0 2.0 1.0 12 27
- 1.141381 2 0 ack 40 ------- 0 2.0 1.0 12 27
r 1.141504 0 2 tcp 1540 ------- 0 1.0 2.0 13 20
+ 1.141504 2 0 ack 40 ------- 0 2.0 1.0 13 28
- 1.141504 2 0 ack 40 ------- 0 2.0 1.0 13 28
r 1.141627 0 2 tcp 1540 ------- 0 1.0 2.0 14 21
+ 1.141627 2 0 ack 40 ------- 0 2.0 1.0 14 29
- 1.141627 2 0 ack 40 ------- 0 2.0 1.0 14 29
r 1.150768 2 0 ack 40 ------- 0 2.0 1.0 7 22
+ 1.150768 0 1 ack 40 ------- 0 2.0 1.0 7 22
- 1.150768 0 1 ack 40 ------- 0 2.0 1.0 7 22
r 1.150891 2 0 ack 40 ------- 0 2.0 1.0 8 23
+ 1.150891 0 1 ack 40 ------- 0 2.0 1.0 8 23
- 1.150891 0 1 ack 40 ------- 0 2.0 1.0 8 23
r 1.151014 2 0 ack 40 ------- 0 2.0 1.0 9 24
+ 1.151014 0 1 ack 40 ------- 0 2.0 1.0 9 24
- 1.151014 0 1 ack 40 ------- 0 2.0 1.0 9 24
r 1.151138 2 0 ack 40 ------- 0 2.0 1.0 10 25
+ 1.151138 0 1 ack 40 ------- 0 2.0 1.0 10 25
- 1.151138 0 1 ack 40 ------- 0 2.0 1.0 10 25
r 1.151261 2 0 ack 40 ------- 0 2.0 1.0 11 26
+ 1.151261 0 1 ack 40 ------- 0 2.0 1.0 11 26
- 1.151261 0 1 ack 40 ------- 0 2.0 1.0 11 26
r 1.151384 2 0 ack 40 ------- 0 2.0 1.0 12 27
+ 1.151384 0 1 ack 40 ------- 0 2.0 1.0 12 27
- 1.151384 0 1 ack 40 ------- 0 2.0 1.0 12 27
r 1.151507 2 0 ack 40 ------- 0 2.0 1.0 13 28
+ 1.151507 0 1 ack 40 ------- 0 2.0 1.0 13 28
- 1.151507 0 1 ack 40 ------- 0 2.0 1.0 13 28
r 1.15163 2 0 ack 40 ------- 0 2.0 1.0 14 29
+ 1.15163 0 1 ack 40 ------- 0 2.0 1.0 14 29
- 1.15163 0 1 ack 40 ------- 0 2.0 1.0 14 29
r 1.160771 0 1 ack 40 ------- 0 2.0 1.0 7 22
+ 1.160771 1 0 tcp 1540 ------- 0 1.0 2.0 15 30
- 1.160771 1 0 tcp 1540 ------- 0 1.0 2.0 15 30
+ 1.160771 1 0 tcp 1540 ------- 0 1.0 2.0 16 31
r 1.160894 0 1 ack 40 ------- 0 2.0 1.0 8 23
+ 1.160894 1 0 tcp 1540 ------- 0 1.0 2.0 17 32
+ 1.160894 1 0 tcp 1540 ------- 0 1.0 2.0 18 33
- 1.160894 1 0 tcp 1540 ------- 0 1.0 2.0 16 31
r 1.161018 0 1 ack 40 ------- 0 2.0 1.0 9 24
+ 1.161018 1 0 tcp 1540 ------- 0 1.0 2.0 19 34
+ 1.161018 1 0 tcp 1540 ------- 0 1.0 2.0 20 35
- 1.161018 1 0 tcp 1540 ------- 0 1.0 2.0 17 32
r 1.161141 0 1 ack 40 ------- 0 2.0 1.0 10 25
+ 1.161141 1 0 tcp 1540 ------- 0 1.0 2.0 21 36
+ 1.161141 1 0 tcp 1540 ------- 0 1.0 2.0 22 37
- 1.161141 1 0 tcp 1540 ------- 0 1.0 2.0 18 33
r 1.161264 0 1 ack 40 ------- 0 2.0 1.0 11 26
+ 1.161264 1 0 tcp 1540 ------- 0 1.0 2.0 23 38
+ 1.161264 1 0 tcp 1540 ------- 0 1.0 2.0 24 39
- 1.161264 1 0 tcp 1540 ------- 0 1.0 2.0 19 34
r 1.161387 0 1 ack 40 ------- 0 2.0 1.0 12 27
+ 1.161387 1 0 tcp 1540 ------- 0 1.0 2.0 25 40
+ 1.161387 1 0 tcp 1540 ------- 0 1.0 2.0 26 41
- 1.161387 1 0 tcp 1540 ------- 0 1.0 2.0 20 35
r 1.16151 0 1 ack 40 ------- 0 2.0 1.0 13 28
+ 1.16151 1 0 tcp 1540 ------- 0 1.0 2.0 27 42
+ 1.16151 1 0 tcp 1540 ------- 0 1.0 2.0 28 43
- 1.16151 1 0 tcp 1540 ------- 0 1.0 2.0 21 36
r 1.161634 0 1 ack 40 ------- 0 2.0 1.0 14 29
+ 1.161634 1 0 tcp 1540 ------- 0 1.0 2.0 29 44
+ 1.161634 1 0 tcp 1540 ------- 0 1.0 2.0 30 45
- 1.161634 1 0 tcp 1540 ------- 0 1.0 2.0 22 37
- 1.161757 1 0 tcp 1540 ------- 0 1.0 2.0 23 38
- 1.16188 1 0 tcp 1540 ------- 0 1.0 2.0 24 39
- 1.162003 1 0 tcp 1540 ------- 0 1.0 2.0 25 40
- 1.162126 1 0 tcp 1540 ------- 0 1.0 2.0 26 41
- 1.16225 1 0 tcp 1540 ------- 0 1.0 2.0 27 42
- 1.162373 1 0 tcp 1540 ------- 0 1.0 2.0 28 43
- 1.162496 1 0 tcp 1540 ------- 0 1.0 2.0 29 44
- 1.162619 1 0 tcp 1540 ------- 0 1.0 2.0 30 45
r 1.170894 1 0 tcp 1540 ------- 0 1.0 2.0 15 30
+ 1.170894 0 2 tcp 1540 ------- 0 1.0 2.0 15 30
- 1.170894 0 2 tcp 1540 ------- 0 1.0 2.0 15 30
r 1.171018 1 0 tcp 1540 ------- 0 1.0 2.0 16 31
+ 1.171018 0 2 tcp 1540 ------- 0 1.0 2.0 16 31
- 1.171018 0 2 tcp 1540 ------- 0 1.0 2.0 16 31
r 1.171141 1 0 tcp 1540 ------- 0 1.0 2.0 17 32
+ 1.171141 0 2 tcp 1540 ------- 0 1.0 2.0 17 32
- 1.171141 0 2 tcp 1540 ------- 0 1.0 2.0 17 32
r 1.171264 1 0 tcp 1540 ------- 0 1.0 2.0 18 33
+ 1.171264 0 2 tcp 1540 ------- 0 1.0 2.0 18 33
- 1.171264 0 2 tcp 1540 ------- 0 1.0 2.0 18 33
r 1.171387 1 0 tcp 1540 ------- 0 1.0 2.0 19 34
+ 1.171387 0 2 tcp 1540 ------- 0 1.0 2.0 19 34
- 1.171387 0 2 tcp 1540 ------- 0 1.0 2.0 19 34
r 1.17151 1 0 tcp 1540 ------- 0 1.0 2.0 20 35
+ 1.17151 0 2 tcp 1540 ------- 0 1.0 2.0 20 35
- 1.17151 0 2 tcp 1540 ------- 0 1.0 2.0 20 35
r 1.171634 1 0 tcp 1540 ------- 0 1.0 2.0 21 36
+ 1.171634 0 2 tcp 1540 ------- 0 1.0 2.0 21 36
- 1.171634 0 2 tcp 1540 ------- 0 1.0 2.0 21 36
r 1.171757 1 0 tcp 1540 ------- 0 1.0 2.0 22 37
+ 1.171757 0 2 tcp 1540 ------- 0 1.0 2.0 22 37
- 1.171757 0 2 tcp 1540 ------- 0 1.0 2.0 22 37
r 1.17188 1 0 tcp 1540 ------- 0 1.0 2.0 23 38
+ 1.17188 0 2 tcp 1540 ------- 0 1.0 2.0 23 38
- 1.17188 0 2 tcp 1540 ------- 0 1.0 2.0 23 38
r 1.172003 1 0 tcp 1540 ------- 0 1.0 2.0 24 39
+ 1.172003 0 2 tcp 1540 ------- 0 1.0 2.0 24 39
- 1.172003 0 2 tcp 1540 ------- 0 1.0 2.0 24 39
r 1.172126 1 0 tcp 1540 ------- 0 1.0 2.0 25 40
+ 1.172126 0 2 tcp 1540 ------- 0 1.0 2.0 25 40
- 1.172126 0 2 tcp 1540 ------- 0 1.0 2.0 25 40
r 1.17225 1 0 tcp 1540 ------- 0 1.0 2.0 26 41
+ 1.17225 0 2 tcp 1540 ------- 0 1.0 2.0 26 41
- 1.17225 0 2 tcp 1540 ------- 0 1.0 2.0 26 41
r 1.172373 1 0 tcp 1540 ------- 0 1.0 2.0 27 42
+ 1.172373 0 2 tcp 1540 ------- 0 1.0 2.0 27 42
- 1.172373 0 2 tcp 1540 ------- 0 1.0 2.0 27 42
r 1.172496 1 0 tcp 1540 ------- 0 1.0 2.0 28 43
+ 1.172496 0 2 tcp 1540 ------- 0 1.0 2.0 28 43
- 1.172496 0 2 tcp 1540 ------- 0 1.0 2.0 28 43
r 1.172619 1 0 tcp 1540 ------- 0 1.0 2.0 29 44
+ 1.172619 0 2 tcp 1540 ------- 0 1.0 2.0 29 44
- 1.172619 0 2 tcp 1540 ------- 0 1.0 2.0 29 44
r 1.172742 1 0 tcp 1540 ------- 0 1.0 2.0 30 45
+ 1.172742 0 2 tcp 1540 ------- 0 1.0 2.0 30 45
- 1.172742 0 2 tcp 1540 ------- 0 1.0 2.0 30 45
r 1.181018 0 2 tcp 1540 ------- 0 1.0 2.0 15 30
+ 1.181018 2 0 ack 40 ------- 0 2.0 1.0 15 46
- 1.181018 2 0 ack 40 ------- 0 2.0 1.0 15 46
r 1.181141 0 2 tcp 1540 ------- 0 1.0 2.0 16 31
+ 1.181141 2 0 ack 40 ------- 0 2.0 1.0 16 47
- 1.181141 2 0 ack 40 ------- 0 2.0 1.0 16 47
r 1.181264 0 2 tcp 1540 ------- 0 1.0 2.0 17 32
+ 1.181264 2 0 ack 40 ------- 0 2.0 1.0 17 48
- 1.181264 2 0 ack 40 ------- 0 2.0 1.0 17 48
r 1.181387 0 2 tcp 1540 ------- 0 1.0 2.0 18 33
+ 1.181387 2 0 ack 40 ------- 0 2.0 1.0 18 49
- 1.181387 2 0 ack 40 ------- 0 2.0 1.0 18 49
r 1.18151 0 2 tcp 1540 ------- 0 1.0 2.0 19 34
+ 1.18151 2 0 ack 40 ------- 0 2.0 1.0 19 50
- 1.18151 2 0 ack 40 ------- 0 2.0 1.0 19 50
r 1.181634 0 2 tcp 1540 ------- 0 1.0 2.0 20 35
+ 1.181634 2 0 ack 40 ------- 0 2.0 1.0 20 51
- 1.181634 2 0 ack 40 ------- 0 2.0 1.0 20 51
r 1.181757 0 2 tcp 1540 ------- 0 1.0 2.0 21 36
+ 1.181757 2 0 ack 40 ------- 0 2.0 1.0 21 52
- 1.181757 2 0 ack 40 ------- 0 2.0 1.0 21 52
r 1.18188 0 2 tcp 1540 ------- 0 1.0 2.0 22 37
+ 1.18188 2 0 ack 40 ------- 0 2.0 1.0 22 53
- 1.18188 2 0 ack 40 ------- 0 2.0 1.0 22 53
r 1.182003 0 2 tcp 1540 ------- 0 1.0 2.0 23 38
+ 1.182003 2 0 ack 40 ------- 0 2.0 1.0 23 54
- 1.182003 2 0 ack 40 ------- 0 2.0 1.0 23 54
r 1.182126 0 2 tcp 1540 ------- 0 1.0 2.0 24 39
+ 1.182126 2 0 ack 40 ------- 0 2.0 1.0 24 55
- 1.182126 2 0 ack 40 ------- 0 2.0 1.0 24 55
r 1.18225 0 2 tcp 1540 ------- 0 1.0 2.0 25 40
+ 1.18225 2 0 ack 40 ------- 0 2.0 1.0 25 56
- 1.18225 2 0 ack 40 ------- 0 2.0 1.0 25 56
r 1.182373 0 2 tcp 1540 ------- 0 1.0 2.0 26 41
+ 1.182373 2 0 ack 40 ------- 0 2.0 1.0 26 57
- 1.182373 2 0 ack 40 ------- 0 2.0 1.0 26 57
r 1.182496 0 2 tcp 1540 ------- 0 1.0 2.0 27 42
+ 1.182496 2 0 ack 40 ------- 0 2.0 1.0 27 58
- 1.182496 2 0 ack 40 ------- 0 2.0 1.0 27 58
r 1.182619 0 2 tcp 1540 ------- 0 1.0 2.0 28 43
+ 1.182619 2 0 ack 40 ------- 0 2.0 1.0 28 59
- 1.182619 2 0 ack 40 ------- 0 2.0 1.0 28 59
r 1.182742 0 2 tcp 1540 ------- 0 1.0 2.0 29 44
+ 1.182742 2 0 ack 40 ------- 0 2.0 1.0 29 60
- 1.182742 2 0 ack 40 ------- 0 2.0 1.0 29 60
r 1.182866 0 2 tcp 1540 ------- 0 1.0 2.0 30 45
+ 1.182866 2 0 ack 40 ------- 0 2.0 1.0 30 61
- 1.182866 2 0 ack 40 ------- 0 2.0 1.0 30 61
r 1.191021 2 0 ack 40 ------- 0 2.0 1.0 15 46
+ 1.191021 0 1 ack 40 ------- 0 2.0 1.0 15 46
- 1.191021 0 1 ack 40 ------- 0 2.0 1.0 15 46
r 1.191144 2 0 ack 40 ------- 0 2.0 1.0 16 47
+ 1.191144 0 1 ack 40 ------- 0 2.0 1.0 16 47
- 1.191144 0 1 ack 40 ------- 0 2.0 1.0 16 47
r 1.191267 2 0 ack 40 ------- 0 2.0 1.0 17 48
+ 1.191267 0 1 ack 40 ------- 0 2.0 1.0 17 48
- 1.191267 0 1 ack 40 ------- 0 2.0 1.0 17 48
r 1.19139 2 0 ack 40 ------- 0 2.0 1.0 18 49
+ 1.19139 0 1 ack 40 ------- 0 2.0 1.0 18 49
- 1.19139 0 1 ack 40 ------- 0 2.0 1.0 18 49
r 1.191514 2 0 ack 40 ------- 0 2.0 1.0 19 50
+ 1.191514 0 1 ack 40 ------- 0 2.0 1.0 19 50
- 1.191514 0 1 ack 40 ------- 0 2.0 1.0 19 50
r 1.191637 2 0 ack 40 ------- 0 2.0 1.0 20 51
+ 1.191637 0 1 ack 40 ------- 0 2.0 1.0 20 51
- 1.191637 0 1 ack 40 ------- 0 2.0 1.0 20 51
r 1.19176 2 0 ack 40 ------- 0 2.0 1.0 21 52
+ 1.19176 0 1 ack 40 ------- 0 2.0 1.0 21 52
- 1.19176 0 1 ack 40 ------- 0 2.0 1.0 21 52
r 1.191883 2 0 ack 40 ------- 0 2.0 1.0 22 53
+ 1.191883 0 1 ack 40 ------- 0 2.0 1.0 22 53
- 1.191883 0 1 ack 40 ------- 0 2.0 1.0 22 53
r 1.192006 2 0 ack 40 ------- 0 2.0 1.0 23 54
+ 1.192006 0 1 ack 40 ------- 0 2.0 1.0 23 54
- 1.192006 0 1 ack 40 ------- 0 2.0 1.0 23 54
r 1.19213 2 0 ack 40 ------- 0 2.0 1.0 24 55
+ 1.19213 0 1 ack 40 ------- 0 2.0 1.0 24 55
- 1.19213 0 1 ack 40 ------- 0 2.0 1.0 24 55
r 1.192253 2 0 ack 40 ------- 0 2.0 1.0 25 56
+ 1.192253 0 1 ack 40 ------- 0 2.0 1.0 25 56
- 1.192253 0 1 ack 40 ------- 0 2.0 1.0 25 56
r 1.192376 2 0 ack 40 ------- 0 2.0 1.0 26 57
+ 1.192376 0 1 ack 40 ------- 0 2.0 1.0 26 57
- 1.192376 0 1 ack 40 ------- 0 2.0 1.0 26 57
r 1.192499 2 0 ack 40 ------- 0 2.0 1.0 27 58
+ 1.192499 0 1 ack 40 ------- 0 2.0 1.0 27 58
- 1.192499 0 1 ack 40 ------- 0 2.0 1.0 27 58
r 1.192622 2 0 ack 40 ------- 0 2.0 1.0 28 59
+ 1.192622 0 1 ack 40 ------- 0 2.0 1.0 28 59
- 1.192622 0 1 ack 40 ------- 0 2.0 1.0 28 59
r 1.192746 2 0 ack 40 ------- 0 2.0 1.0 29 60
+ 1.192746 0 1 ack 40 ------- 0 2.0 1.0 29 60
- 1.192746 0 1 ack 40 ------- 0 2.0 1.0 29 60
r 1.192869 2 0 ack 40 ------- 0 2.0 1.0 30 61
+ 1.192869 0 1 ack 40 ------- 0 2.0 1.0 30 61
- 1.192869 0 1 ack 40 ------- 0 2.0 1.0 30 61
r 1.201024 0 1 ack 40 ------- 0 2.0 1.0 15 46
+ 1.201024 1 0 tcp 1540 ------- 0 1.0 2.0 31 62
- 1.201024 1 0 tcp 1540 ------- 0 1.0 2.0 31 62
+ 1.201024 1 0 tcp 1540 ------- 0 1.0 2.0 32 63
r 1.201147 0 1 ack 40 ------- 0 2.0 1.0 16 47
+ 1.201147 1 0 tcp 1540 ------- 0 1.0 2.0 33 64
+ 1.201147 1 0 tcp 1540 ------- 0 1.0 2.0 34 65
- 1.201147 1 0 tcp 1540 ------- 0 1.0 2.0 32 63
r 1.20127 0 1 ack 40 ------- 0 2.0 1.0 17 48
+ 1.20127 1 0 tcp 1540 ------- 0 1.0 2.0 35 66
+ 1.20127 1 0 tcp 1540 ------- 0 1.0 2.0 36 67
- 1.20127 1 0 tcp 1540 ------- 0 1.0 2.0 33 64
r 1.201394 0 1 ack 40 ------- 0 2.0 1.0 18 49
+ 1.201394 1 0 tcp 1540 ------- 0 1.0 2.0 37 68
+ 1.201394 1 0 tcp 1540 ------- 0 1.0 2.0 38 69
- 1.201394 1 0 tcp 1540 ------- 0 1.0 2.0 34 65
r 1.201517 0 1 ack 40 ------- 0 2.0 1.0 19 50
+ 1.201517 1 0 tcp 1540 ------- 0 1.0 2.0 39 70
- 1.201517 1 0 tcp 1540 ------- 0 1.0 2.0 35 66
r 1.20164 0 1 ack 40 ------- 0 2.0 1.0 20 51
+ 1.20164 1 0 tcp 1540 ------- 0 1.0 2.0 40 71
- 1.20164 1 0 tcp 1540 ------- 0 1.0 2.0 36 67
r 1.201763 0 1 ack 40 ------- 0 2.0 1.0 21 52
+ 1.201763 1 0 tcp 1540 ------- 0 1.0 2.0 41 72
- 1.201763 1 0 tcp 1540 ------- 0 1.0 2.0 37 68
r 1.201886 0 1 ack 40 ------- 0 2.0 1.0 22 53
+ 1.201886 1 0 tcp 1540 ------- 0 1.0 2.0 42 73
- 1.201886 1 0 tcp 1540 ------- 0 1.0 2.0 38 69
r 1.20201 0 1 ack 40 ------- 0 2.0 1.0 23 54
+ 1.20201 1 0 tcp 1540 ------- 0 1.0 2.0 43 74
- 1.20201 1 0 tcp 1540 ------- 0 1.0 2.0 39 70
r 1.202133 0 1 ack 40 ------- 0 2.0 1.0 24 55
+ 1.202133 1 0 tcp 1540 ------- 0 1.0 2.0 44 75
- 1.202133 1 0 tcp 1540 ------- 0 1.0 2.0 40 71
r 1.202256 0 1 ack 40 ------- 0 2.0 1.0 25 56
+ 1.202256 1 0 tcp 1540 ------- 0 1.0 2.0 45 76
- 1.202256 1 0 tcp 1540 ------- 0 1.0 2.0 41 72
r 1.202379 0 1 ack 40 ------- 0 2.0 1.0 26 57
+ 1.202379 1 0 tcp 1540 ------- 0 1.0 2.0 46 77
- 1.202379 1 0 tcp 1540 ------- 0 1.0 2.0 42 73
r 1.202502 0 1 ack 40 ------- 0 2.0 1.0 27 58
+ 1.202502 1 0 tcp 1540 ------- 0 1.0 2.0 47 78
- 1.202502 1 0 tcp 1540 ------- 0 1.0 2.0 43 74
r 1.202626 0 1 ack 40 ------- 0 2.0 1.0 28 59
+ 1.202626 1 0 tcp 1540 ------- 0 1.0 2.0 48 79
- 1.202626 1 0 tcp 1540 ------- 0 1.0 2.0 44 75
r 1.202749 0 1 ack 40 ------- 0 2.0 1.0 29 60
+ 1.202749 1 0 tcp 1540 ------- 0 1.0 2.0 49 80
- 1.202749 1 0 tcp 1540 ------- 0 1.0 2.0 45 76
r 1.202872 0 1 ack 40 ------- 0 2.0 1.0 30 61
+ 1.202872 1 0 tcp 1540 ------- 0 1.0 2.0 50 81
- 1.202872 1 0 tcp 1540 ------- 0 1.0 2.0 46 77
- 1.202995 1 0 tcp 1540 ------- 0 1.0 2.0 47 78
- 1.203118 1 0 tcp 1540 ------- 0 1.0 2.0 48 79
- 1.203242 1 0 tcp 1540 ------- 0 1.0 2.0 49 80
- 1.203365 1 0 tcp 1540 ------- 0 1.0 2.0 50 81
r 1.211147 1 0 tcp 1540 ------- 0 1.0 2.0 31 62
+ 1.211147 0 2 tcp 1540 ------- 0 1.0 2.0 31 62
- 1.211147 0 2 tcp 1540 ------- 0 1.0 2.0 31 62
r 1.21127 1 0 tcp 1540 ------- 0 1.0 2.0 32 63
+ 1.21127 0 2 tcp 1540 ------- 0 1.0 2.0 32 63
- 1.21127 0 2 tcp 1540 ------- 0 1.0 2.0 32 63
r 1.211394 1 0 tcp 1540 ------- 0 1.0 2.0 33 64
+ 1.211394 0 2 tcp 1540 ------- 0 1.0 2.0 33 64
- 1.211394 0 2 tcp 1540 ------- 0 1.0 2.0 33 64
r 1.211517 1 0 tcp 1540 ------- 0 1.0 2.0 34 65
+ 1.211517 0 2 tcp 1540 ------- 0 1.0 2.0 34 65
- 1.211517 0 2 tcp 1540 ------- 0 1.0 2.0 34 65
r 1.21164 1 0 tcp 1540 ------- 0 1.0 2.0 35 66
+ 1.21164 0 2 tcp 1540 ------- 0 1.0 2.0 35 66
- 1.21164 0 2 tcp 1540 ------- 0 1.0 2.0 35 66
r 1.211763 1 0 tcp 1540 ------- 0 1.0 2.0 36 67
+ 1.211763 0 2 tcp 1540 ------- 0 1.0 2.0 36 67
- 1.211763 0 2 tcp 1540 ------- 0 1.0 2.0 36 67
r 1.211886 1 0 tcp 1540 ------- 0 1.0 2.0 37 68
+ 1.211886 0 2 tcp 1540 ------- 0 1.0 2.0 37 68
- 1.211886 0 2 tcp 1540 ------- 0 1.0 2.0 37 68
r 1.21201 1 0 tcp 1540 ------- 0 1.0 2.0 38 69
+ 1.21201 0 2 tcp 1540 ------- 0 1.0 2.0 38 69
- 1.21201 0 2 tcp 1540 ------- 0 1.0 2.0 38 69
r 1.212133 1 0 tcp 1540 ------- 0 1.0 2.0 39 70
+ 1.212133 0 2 tcp 1540 ------- 0 1.0 2.0 39 70
- 1.212133 0 2 tcp 1540 ------- 0 1.0 2.0 39 70
r 1.212256 1 0 tcp 1540 ------- 0 1.0 2.0 40 71
+ 1.212256 0 2 tcp 1540 ------- 0 1.0 2.0 40 71
- 1.212256 0 2 tcp 1540 ------- 0 1.0 2.0 40 71
r 1.212379 1 0 tcp 1540 ------- 0 1.0 2.0 41 72
+ 1.212379 0 2 tcp 1540 ------- 0 1.0 2.0 41 72
- 1.212379 0 2 tcp 1540 ------- 0 1.0 2.0 41 72
r 1.212502 1 0 tcp 1540 ------- 0 1.0 2.0 42 73
+ 1.212502 0 2 tcp 1540 ------- 0 1.0 2.0 42 73
- 1.212502 0 2 tcp 1540 ------- 0 1.0 2.0 42 73
r 1.212626 1 0 tcp 1540 ------- 0 1.0 2.0 43 74
+ 1.212626 0 2 tcp 1540 ------- 0 1.0 2.0 43 74
- 1.212626 0 2 tcp 1540 ------- 0 1.0 2.0 43 74
r 1.212749 1 0 tcp 1540 ------- 0 1.0 2.0 44 75
+ 1.212749 0 2 tcp 1540 ------- 0 1.0 2.0 44 75
- 1.212749 0 2 tcp 1540 ------- 0 1.0 2.0 44 75
r 1.212872 1 0 tcp 1540 ------- 0 1.0 2.0 45 76
+ 1.212872 0 2 tcp 1540 ------- 0 1.0 2.0 45 76
- 1.212872 0 2 tcp 1540 ------- 0 1.0 2.0 45 76
r 1.212995 1 0 tcp 1540 ------- 0 1.0 2.0 46 77
+ 1.212995 0 2 tcp 1540 ------- 0 1.0 2.0 46 77
- 1.212995 0 2 tcp 1540 ------- 0 1.0 2.0 46 77
r 1.213118 1 0 tcp 1540 ------- 0 1.0 2.0 47 78
+ 1.213118 0 2 tcp 1540 ------- 0 1.0 2.0 47 78
- 1.213118 0 2 tcp 1540 ------- 0 1.0 2.0 47 78
r 1.213242 1 0 tcp 1540 ------- 0 1.0 2.0 48 79
+ 1.213242 0 2 tcp 1540 ------- 0 1.0 2.0 48 79
- 1.213242 0 2 tcp 1540 ------- 0 1.0 2.0 48 79
r 1.213365 1 0 tcp 1540 ------- 0 1.0 2.0 49 80
+ 1.213365 0 2 tcp 1540 ------- 0 1.0 2.0 49 80
- 1.213365 0 2 tcp 1540 ------- 0 1.0 2.0 49 80
r 1.213488 1 0 tcp 1540 ------- 0 1.0 2.0 50 81
+ 1.213488 0 2 tcp 1540 ------- 0 1.0 2.0 50 81
- 1.213488 0 2 tcp 1540 ------- 0 1.0 2.0 50 81
r 1.22127 0 2 tcp 1540 ------- 0 1.0 2.0 31 62
+ 1.22127 2 0 ack 40 ------- 0 2.0 1.0 31 82
- 1.22127 2 0 ack 40 ------- 0 2.0 1.0 31 82
r 1.221394 0 2 tcp 1540 ------- 0 1.0 2.0 32 63
+ 1.221394 2 0 ack 40 ------- 0 2.0 1.0 32 83
- 1.221394 2 0 ack 40 ------- 0 2.0 1.0 32 83
r 1.221517 0 2 tcp 1540 ------- 0 1.0 2.0 33 64
+ 1.221517 2 0 ack 40 ------- 0 2.0 1.0 33 84
- 1.221517 2 0 ack 40 ------- 0 2.0 1.0 33 84
r 1.22164 0 2 tcp 1540 ------- 0 1.0 2.0 34 65
+ 1.22164 2 0 ack 40 ------- 0 2.0 1.0 34 85
- 1.22164 2 0 ack 40 ------- 0 2.0 1.0 34 85
r 1.221763 0 2 tcp 1540 ------- 0 1.0 2.0 35 66
+ 1.221763 2 0 ack 40 ------- 0 2.0 1.0 35 86
- 1.221763 2 0 ack 40 ------- 0 2.0 1.0 35 86
r 1.221886 0 2 tcp 1540 ------- 0 1.0 2.0 36 67
+ 1.221886 2 0 ack 40 ------- 0 2.0 1.0 36 87
- 1.221886 2 0 ack 40 ------- 0 2.0 1.0 36 87
r 1.22201 0 2 tcp 1540 ------- 0 1.0 2.0 37 68
+ 1.22201 2 0 ack 40 ------- 0 2.0 1.0 37 88
- 1.22201 2 0 ack 40 ------- 0 2.0 1.0 37 88
r 1.222133 0 2 tcp 1540 ------- 0 1.0 2.0 38 69
+ 1.222133 2 0 ack 40 ------- 0 2.0 1.0 38 89
- 1.222133 2 0 ack 40 ------- 0 2.0 1.0 38 89
r 1.222256 0 2 tcp 1540 ------- 0 1.0 2.0 39 70
+ 1.222256 2 0 ack 40 ------- 0 2.0 1.0 39 90
- 1.222256 2 0 ack 40 ------- 0 2.0 1.0 39 90
r 1.222379 0 2 tcp 1540 ------- 0 1.0 2.0 40 71
+ 1.222379 2 0 ack 40 ------- 0 2.0 1.0 40 91
- 1.222379 2 0 ack 40 ------- 0 2.0 1.0 40 91
r 1.222502 0 2 tcp 1540 ------- 0 1.0 2.0 41 72
+ 1.222502 2 0 ack 40 ------- 0 2.0 1.0 41 92
- 1.222502 2 0 ack 40 ------- 0 2.0 1.0 41 92
r 1.222626 0 2 tcp 1540 ------- 0 1.0 2.0 42 73
+ 1.222626 2 0 ack 40 ------- 0 2.0 1.0 42 93
- 1.222626 2 0 ack 40 ------- 0 2.0 1.0 42 93
r 1.222749 0 2 tcp 1540 ------- 0 1.0 2.0 43 74
+ 1.222749 2 0 ack 40 ------- 0 2.0 1.0 43 94
- 1.222749 2 0 ack 40 ------- 0 2.0 1.0 43 94
r 1.222872 0 2 tcp 1540 ------- 0 1.0 2.0 44 75
+ 1.222872 2 0 ack 40 ------- 0 2.0 1.0 44 95
- 1.222872 2 0 ack 40 ------- 0 2.0 1.0 44 95
r 1.222995 0 2 tcp 1540 ------- 0 1.0 2.0 45 76
+ 1.222995 2 0 ack 40 ------- 0 2.0 1.0 45 96
- 1.222995 2 0 ack 40 ------- 0 2.0 1.0 45 96
r 1.223118 0 2 tcp 1540 ------- 0 1.0 2.0 46 77
+ 1.223118 2 0 ack 40 ------- 0 2.0 1.0 46 97
- 1.223118 2 0 ack 40 ------- 0 2.0 1.0 46 97
r 1.223242 0 2 tcp 1540 ------- 0 1.0 2.0 47 78
+ 1.223242 2 0 ack 40 ------- 0 2.0 1.0 47 98
- 1.223242 2 0 ack 40 ------- 0 2.0 1.0 47 98
r 1.223365 0 2 tcp 1540 ------- 0 1.0 2.0 48 79
+ 1.223365 2 0 ack 40 ------- 0 2.0 1.0 48 99
- 1.223365 2 0 ack 40 ------- 0 2.0 1.0 48 99
r 1.223488 0 2 tcp 1540 ------- 0 1.0 2.0 49 80
+ 1.223488 2 0 ack 40 ------- 0 2.0 1.0 49 100
- 1.223488 2 0 ack 40 ------- 0 2.0 1.0 49 100
r 1.223611 0 2 tcp 1540 ------- 0 1.0 2.0 50 81
+ 1.223611 2 0 ack 40 ------- 0 2.0 1.0 50 101
- 1.223611 2 0 ack 40 ------- 0 2.0 1.0 50 101
r 1.231274 2 0 ack 40 ------- 0 2.0 1.0 31 82
+ 1.231274 0 1 ack 40 ------- 0 2.0 1.0 31 82
- 1.231274 0 1 ack 40 ------- 0 2.0 1.0 31 82
r 1.231397 2 0 ack 40 ------- 0 2.0 1.0 32 83
+ 1.231397 0 1 ack 40 ------- 0 2.0 1.0 32 83
- 1.231397 0 1 ack 40 ------- 0 2.0 1.0 32 83
r 1.23152 2 0 ack 40 ------- 0 2.0 1.0 33 84
+ 1.23152 0 1 ack 40 ------- 0 2.0 1.0 33 84
- 1.23152 0 1 ack 40 ------- 0 2.0 1.0 33 84
r 1.231643 2 0 ack 40 ------- 0 2.0 1.0 34 85
+ 1.231643 0 1 ack 40 ------- 0 2.0 1.0 34 85
- 1.231643 0 1 ack 40 ------- 0 2.0 1.0 34 85
r 1.231766 2 0 ack 40 ------- 0 2.0 1.0 35 86
+ 1.231766 0 1 ack 40 ------- 0 2.0 1.0 35 86
- 1.231766 0 1 ack 40 ------- 0 2.0 1.0 35 86
r 1.23189 2 0 ack 40 ------- 0 2.0 1.0 36 87
+ 1.23189 0 1 ack 40 ------- 0 2.0 1.0 36 87
- 1.23189 0 1 ack 40 ------- 0 2.0 1.0 36 87
r 1.232013 2 0 ack 40 ------- 0 2.0 1.0 37 88
+ 1.232013 0 1 ack 40 ------- 0 2.0 1.0 37 88
- 1.232013 0 1 ack 40 ------- 0 2.0 1.0 37 88
r 1.232136 2 0 ack 40 ------- 0 2.0 1.0 38 89
+ 1.232136 0 1 ack 40 ------- 0 2.0 1.0 38 89
- 1.232136 0 1 ack 40 ------- 0 2.0 1.0 38 89
r 1.232259 2 0 ack 40 ------- 0 2.0 1.0 39 90
+ 1.232259 0 1 ack 40 ------- 0 2.0 1.0 39 90
- 1.232259 0 1 ack 40 ------- 0 2.0 1.0 39 90
r 1.232382 2 0 ack 40 ------- 0 2.0 1.0 40 91
+ 1.232382 0 1 ack 40 ------- 0 2.0 1.0 40 91
- 1.232382 0 1 ack 40 ------- 0 2.0 1.0 40 91
r 1.232506 2 0 ack 40 ------- 0 2.0 1.0 41 92
+ 1.232506 0 1 ack 40 ------- 0 2.0 1.0 41 92
- 1.232506 0 1 ack 40 ------- 0 2.0 1.0 41 92
r 1.232629 2 0 ack 40 ------- 0 2.0 1.0 42 93
+ 1.232629 0 1 ack 40 ------- 0 2.0 1.0 42 93
- 1.232629 0 1 ack 40 ------- 0 2.0 1.0 42 93
r 1.232752 2 0 ack 40 ------- 0 2.0 1.0 43 94
+ 1.232752 0 1 ack 40 ------- 0 2.0 1.0 43 94
- 1.232752 0 1 ack 40 ------- 0 2.0 1.0 43 94
r 1.232875 2 0 ack 40 ------- 0 2.0 1.0 44 95
+ 1.232875 0 1 ack 40 ------- 0 2.0 1.0 44 95
- 1.232875 0 1 ack 40 ------- 0 2.0 1.0 44 95
r 1.232998 2 0 ack 40 ------- 0 2.0 1.0 45 96
+ 1.232998 0 1 ack 40 ------- 0 2.0 1.0 45 96
- 1.232998 0 1 ack 40 ------- 0 2.0 1.0 45 96
r 1.233122 2 0 ack 40 ------- 0 2.0 1.0 46 97
+ 1.233122 0 1 ack 40 ------- 0 2.0 1.0 46 97
- 1.233122 0 1 ack 40 ------- 0 2.0 1.0 46 97
r 1.233245 2 0 ack 40 ------- 0 2.0 1.0 47 98
+ 1.233245 0 1 ack 40 ------- 0 2.0 1.0 47 98
- 1.233245 0 1 ack 40 ------- 0 2.0 1.0 47 98
r 1.233368 2 0 ack 40 ------- 0 2.0 1.0 48 99
+ 1.233368 0 1 ack 40 ------- 0 2.0 1.0 48 99
- 1.233368 0 1 ack 40 ------- 0 2.0 1.0 48 99
r 1.233491 2 0 ack 40 ------- 0 2.0 1.0 49 100
+ 1.233491 0 1 ack 40 ------- 0 2.0 1.0 49 100
- 1.233491 0 1 ack 40 ------- 0 2.0 1.0 49 100
r 1.233614 2 0 ack 40 ------- 0 2.0 1.0 50 101
+ 1.233614 0 1 ack 40 ------- 0 2.0 1.0 50 101
- 1.233614 0 1 ack 40 ------- 0 2.0 1.0 50 101
r 1.241277 0 1 ack 40 ------- 0 2.0 1.0 31 82
+ 1.241277 1 0 tcp 1540 ------- 0 1.0 2.0 51 102
- 1.241277 1 0 tcp 1540 ------- 0 1.0 2.0 51 102
r 1.2414 0 1 ack 40 ------- 0 2.0 1.0 32 83
+ 1.2414 1 0 tcp 1540 ------- 0 1.0 2.0 52 103
- 1.2414 1 0 tcp 1540 ------- 0 1.0 2.0 52 103
r 1.241523 0 1 ack 40 ------- 0 2.0 1.0 33 84
+ 1.241523 1 0 tcp 1540 ------- 0 1.0 2.0 53 104
- 1.241523 1 0 tcp 1540 ------- 0 1.0 2.0 53 104
r 1.241646 0 1 ack 40 ------- 0 2.0 1.0 34 85
+ 1.241646 1 0 tcp 1540 ------- 0 1.0 2.0 54 105
- 1.241646 1 0 tcp 1540 ------- 0 1.0 2.0 54 105
r 1.24177 0 1 ack 40 ------- 0 2.0 1.0 35 86
+ 1.24177 1 0 tcp 1540 ------- 0 1.0 2.0 55 106
- 1.24177 1 0 tcp 1540 ------- 0 1.0 2.0 55 106
r 1.241893 0 1 ack 40 ------- 0 2.0 1.0 36 87
+ 1.241893 1 0 tcp 1540 ------- 0 1.0 2.0 56 107
- 1.241893 1 0 tcp 1540 ------- 0 1.0 2.0 56 107
r 1.242016 0 1 ack 40 ------- 0 2.0 1.0 37 88
+ 1.242016 1 0 tcp 1540 ------- 0 1.0 2.0 57 108
- 1.242016 1 0 tcp 1540 ------- 0 1.0 2.0 57 108
r 1.242139 0 1 ack 40 ------- 0 2.0 1.0 38 89
+ 1.242139 1 0 tcp 1540 ------- 0 1.0 2.0 58 109
- 1.242139 1 0 tcp 1540 ------- 0 1.0 2.0 58 109
r 1.242262 0 1 ack 40 ------- 0 2.0 1.0 39 90
+ 1.242262 1 0 tcp 1540 ------- 0 1.0 2.0 59 110
- 1.242262 1 0 tcp 1540 ------- 0 1.0 2.0 59 110
r 1.242386 0 1 ack 40 ------- 0 2.0 1.0 40 91
+ 1.242386 1 0 tcp 1540 ------- 0 1.0 2.0 60 111
- 1.242386 1 0 tcp 1540 ------- 0 1.0 2.0 60 111
r 1.242509 0 1 ack 40 ------- 0 2.0 1.0 41 92
+ 1.242509 1 0 tcp 1540 ------- 0 1.0 2.0 61 112
- 1.242509 1 0 tcp 1540 ------- 0 1.0 2.0 61 112
r 1.242632 0 1 ack 40 ------- 0 2.0 1.0 42 93
+ 1.242632 1 0 tcp 1540 ------- 0 1.0 2.0 62 113
- 1.242632 1 0 tcp 1540 ------- 0 1.0 2.0 62 113
r 1.242755 0 1 ack 40 ------- 0 2.0 1.0 43 94
+ 1.242755 1 0 tcp 1540 ------- 0 1.0 2.0 63 114
- 1.242755 1 0 tcp 1540 ------- 0 1.0 2.0 63 114
r 1.242878 0 1 ack 40 ------- 0 2.0 1.0 44 95
+ 1.242878 1 0 tcp 1540 ------- 0 1.0 2.0 64 115
- 1.242878 1 0 tcp 1540 ------- 0 1.0 2.0 64 115
r 1.243002 0 1 ack 40 ------- 0 2.0 1.0 45 96
+ 1.243002 1 0 tcp 1540 ------- 0 1.0 2.0 65 116
- 1.243002 1 0 tcp 1540 ------- 0 1.0 2.0 65 116
r 1.243125 0 1 ack 40 ------- 0 2.0 1.0 46 97
+ 1.243125 1 0 tcp 1540 ------- 0 1.0 2.0 66 117
- 1.243125 1 0 tcp 1540 ------- 0 1.0 2.0 66 117
r 1.243248 0 1 ack 40 ------- 0 2.0 1.0 47 98
+ 1.243248 1 0 tcp 1540 ------- 0 1.0 2.0 67 118